n -t * -s 0  -x 0 -y 0 -Z 0 -z 20  -v circle -c black
n -t * -s 1  -x 0 -y 0 -Z 0 -z 20  -v circle -c black
n -t * -s 2  -x 0 -y 0 -Z 0 -z 20  -v circle -c black
n -t * -s 3  -x 0 -y 0 -Z 0 -z 20  -v circle -c black
n -t * -s 4  -x 0 -y 0 -Z 0 -z 20  -v circle -c black
n -t * -s 5  -x 0 -y 0 -Z 0 -z 20  -v circle -c black
n -t * -s 6  -x 0 -y 0 -Z 0 -z 20  -v circle -c black
n -t * -s 7  -x 0 -y 0 -Z 0 -z 20  -v circle -c black
n -t * -s 8  -x 0 -y 0 -Z 0 -z 20  -v circle -c black
n -t * -s 9  -x 0 -y 0 -Z 0 -z 20  -v circle -c black
n -t * -s 10  -x 0 -y 0 -Z 0 -z 20  -v circle -c black
n -t * -s 11  -x 0 -y 0 -Z 0 -z 20  -v circle -c black
n -t * -s 12  -x 0 -y 0 -Z 0 -z 20  -v circle -c black
n -t * -s 13  -x 0 -y 0 -Z 0 -z 20  -v circle -c black
n -t * -s 14  -x 0 -y 0 -Z 0 -z 20  -v circle -c black
n -t * -s 15  -x 0 -y 0 -Z 0 -z 20  -v circle -c black
n -t * -s 16  -x 0 -y 0 -Z 0 -z 20  -v circle -c black
n -t * -s 17  -x 0 -y 0 -Z 0 -z 20  -v circle -c black
n -t * -s 18  -x 0 -y 0 -Z 0 -z 20  -v circle -c black
n -t * -s 19  -x 0 -y 0 -Z 0 -z 20  -v circle -c black
n -t * -s 20  -x 0 -y 0 -Z 0 -z 20  -v circle -c black
n -t * -s 21  -x 0 -y 0 -Z 0 -z 20  -v circle -c black
n -t * -s 22  -x 0 -y 0 -Z 0 -z 20  -v circle -c black
n -t * -s 23  -x 0 -y 0 -Z 0 -z 20  -v circle -c black
n -t * -s 24  -x 0 -y 0 -Z 0 -z 20  -v circle -c black
n -t * -s 25  -x 0 -y 0 -Z 0 -z 20  -v circle -c black
n -t * -s 26  -x 0 -y 0 -Z 0 -z 20  -v circle -c black
n -t * -s 27  -x 0 -y 0 -Z 0 -z 20  -v circle -c black
n -t * -s 28  -x 0 -y 0 -Z 0 -z 20  -v circle -c black
n -t * -s 29  -x 0 -y 0 -Z 0 -z 20  -v circle -c black
n -t * -s 30  -x 0 -y 0 -Z 0 -z 20  -v circle -c black
n -t * -s 31  -x 0 -y 0 -Z 0 -z 20  -v circle -c black
n -t * -s 32  -x 0 -y 0 -Z 0 -z 20  -v circle -c black
n -t * -s 33  -x 0 -y 0 -Z 0 -z 20  -v circle -c black
n -t * -s 34  -x 0 -y 0 -Z 0 -z 20  -v circle -c black
n -t * -s 35  -x 0 -y 0 -Z 0 -z 20  -v circle -c black
n -t * -s 36  -x 0 -y 0 -Z 0 -z 20  -v circle -c black
n -t * -s 37  -x 0 -y 0 -Z 0 -z 20  -v circle -c black
n -t * -s 38  -x 0 -y 0 -Z 0 -z 20  -v circle -c black
n -t * -s 39  -x 0 -y 0 -Z 0 -z 20  -v circle -c black
n -t * -s 40  -x 0 -y 0 -Z 0 -z 20  -v circle -c black
V -t * -v 1.0a5 -a 0
W -t * -x 2109 -y 1537
A -t * -n 1 -p 0 -o 0x7fffffff -c 30 -a 1
A -t * -h 1 -m 1073741823 -s 0
n -t 0.000000 -s 0 -x 1306.410000 -y 5.270000 -U 0.000000 -V 0.000000 -T 0.000000
n -t 0.100000 -s 0 -x 1306.410000 -y 5.270000 -U 0.000000 -V 0.250000 -T 0.080000
n -t 0.200000 -s 0 -x 1306.410000 -y 5.290000 -U -0.096097 -V 0.480485 -T 0.104062
n -t 0.300000 -s 0 -x 1306.400390 -y 5.338048 -U -0.102906 -V 0.712608 -T 0.100969
n -t 0.400000 -s 0 -x 1306.390100 -y 5.409309 -U -0.095812 -V 0.955207 -T 0.105412
n -t 0.500000 -s 0 -x 1306.380519 -y 5.504830 -U -0.203461 -V 1.142017 -T 0.100848
n -t 0.600000 -s 0 -x 1306.360173 -y 5.619032 -U -0.100045 -V 1.386395 -T 0.101680
n -t 0.700000 -s 0 -x 1306.350168 -y 5.757671 -U -0.284524 -V 1.625283 -T 0.106030
n -t 0.800000 -s 0 -x 1306.321716 -y 5.920200 -U -0.209156 -V 1.828074 -T 0.103825
n -t 0.900000 -s 0 -x 1306.300800 -y 6.103007 -U -0.294355 -V 1.978220 -T 0.104636
n -t 1.000000 -s 0 -x 1306.271365 -y 6.300829 -U -0.303738 -V 2.219311 -T 0.103262
n -t 1.000000 -s 1 -x 695.200000 -y 380.390000 -U 0.000000 -V 0.000000 -T 0.000000
n -t 1.100000 -s 0 -x 1306.240991 -y 6.522760 -U -0.403996 -V 2.436737 -T 0.101464
n -t 1.100000 -s 1 -x 695.200000 -y 380.390000 -U 0.260000 -V 0.000000 -T 0.076923
n -t 1.200000 -s 0 -x 1306.200591 -y 6.766434 -U -0.403365 -V 2.619121 -T 0.100632
n -t 1.200000 -s 1 -x 695.220000 -y 380.390000 -U 0.490290 -V 0.098058 -T 0.101980
n -t 1.300000 -s 0 -x 1306.160255 -y 7.028346 -U -0.294067 -V 2.834788 -T 0.102884
n -t 1.300000 -s 1 -x 695.269029 -y 380.399806 -U 0.754047 -V 0.094934 -T 0.107382
n -t 1.400000 -s 0 -x 1306.130848 -y 7.311825 -U -0.493272 -V 2.989579 -T 0.103083
n -t 1.400000 -s 1 -x 695.344434 -y 380.409299 -U 1.004851 -V 0.101857 -T 0.105057
n -t 1.500000 -s 0 -x 1306.081521 -y 7.610783 -U -0.410170 -V 3.153436 -T 0.101228
n -t 1.500000 -s 1 -x 695.444919 -y 380.419485 -U 1.243387 -V 0.203933 -T 0.100597
n -t 1.600000 -s 0 -x 1306.040504 -y 7.926126 -U -0.494049 -V 3.363914 -T 0.102224
n -t 1.600000 -s 1 -x 695.569258 -y 380.439878 -U 1.486812 -V 0.198466 -T 0.101386
n -t 1.700000 -s 0 -x 1305.991099 -y 8.262518 -U -0.499946 -V 3.595407 -T 0.102209
n -t 1.700000 -s 1 -x 695.717939 -y 380.459725 -U 1.678388 -V 0.197776 -T 0.102516
n -t 1.800000 -s 0 -x 1305.941104 -y 8.622058 -U -0.502824 -V 3.817023 -T 0.101635
n -t 1.800000 -s 1 -x 695.885778 -y 380.479502 -U 1.926396 -V 0.302490 -T 0.100822
n -t 1.900000 -s 0 -x 1305.890822 -y 9.003761 -U -0.598199 -V 3.995467 -T 0.101675
n -t 1.900000 -s 1 -x 696.078417 -y 380.509751 -U 2.159967 -V 0.294860 -T 0.102586
n -t 2.000000 -s 0 -x 1305.831002 -y 9.403307 -U -0.605730 -V 4.236920 -T 0.100708
n -t 2.000000 -s 1 -x 696.294414 -y 380.539237 -U 2.421080 -V 0.303269 -T 0.101437
n -t 2.000000 -s 2 -x 510.750000 -y 324.190000 -U 0.000000 -V 0.000000 -T 0.000000
n -t 2.100000 -s 0 -x 1305.770429 -y 9.826999 -U -0.592372 -V 4.440664 -T 0.102012
n -t 2.100000 -s 1 -x 696.536522 -y 380.569564 -U 2.572891 -V 0.297208 -T 0.102406
n -t 2.100000 -s 2 -x 510.750000 -y 324.190000 -U -0.183848 -V -0.183848 -T 0.108786
n -t 2.200000 -s 0 -x 1305.711192 -y 10.271066 -U -0.696447 -V 4.587435 -T 0.102221
n -t 2.200000 -s 1 -x 696.793811 -y 380.599285 -U 2.720597 -V 0.401062 -T 0.101518
n -t 2.200000 -s 2 -x 510.731615 -y 324.171615 -U -0.406101 -V -0.308516 -T 0.102475
n -t 2.300000 -s 0 -x 1305.641547 -y 10.729809 -U -0.705904 -V 4.737700 -T 0.101355
n -t 2.300000 -s 1 -x 697.065871 -y 380.639391 -U 2.892562 -V 0.399359 -T 0.101685
n -t 2.300000 -s 2 -x 510.691005 -y 324.140764 -U -0.615282 -V -0.411131 -T 0.099150
n -t 2.400000 -s 0 -x 1305.570957 -y 11.203579 -U -0.703247 -V 4.919994 -T 0.100899
n -t 2.400000 -s 1 -x 697.355127 -y 380.679327 -U 3.074457 -V 0.397134 -T 0.102416
n -t 2.400000 -s 2 -x 510.630000 -y 324.100000 -U -0.805598 -V -0.503499 -T 0.099305
n -t 2.500000 -s 0 -x 1305.500632 -y 11.695579 -U -0.700542 -V 5.102131 -T 0.100825
n -t 2.500000 -s 1 -x 697.662572 -y 380.719041 -U 3.234788 -V 0.404655 -T 0.101221
n -t 2.500000 -s 2 -x 510.550000 -y 324.050000 -U -0.994692 -V -0.596815 -T 0.100534
n -t 2.600000 -s 0 -x 1305.430578 -y 12.205792 -U -0.703355 -V 5.323739 -T 0.100345
n -t 2.600000 -s 1 -x 697.986051 -y 380.759506 -U 3.484719 -V 0.497126 -T 0.101572
n -t 2.600000 -s 2 -x 510.450531 -y 323.990318 -U -1.139033 -V -0.724640 -T 0.097039
n -t 2.700000 -s 0 -x 1305.360242 -y 12.738166 -U -0.791769 -V 5.543744 -T 0.101346
n -t 2.700000 -s 1 -x 698.334523 -y 380.809219 -U 3.706258 -V 0.501252 -T 0.101309
n -t 2.700000 -s 2 -x 510.340000 -y 323.920000 -U -1.337474 -V -0.859805 -T 0.104675
n -t 2.800000 -s 0 -x 1305.281065 -y 13.292540 -U -0.807704 -V 5.753583 -T 0.100365
n -t 2.800000 -s 1 -x 698.705149 -y 380.859344 -U 3.907971 -V 0.501360 -T 0.101037
n -t 2.800000 -s 2 -x 510.206253 -y 323.834020 -U -1.498349 -V -0.997472 -T 0.104283
n -t 2.900000 -s 0 -x 1305.200295 -y 13.867898 -U -0.897000 -V 5.881997 -T 0.100663
n -t 2.900000 -s 1 -x 699.095946 -y 380.909480 -U 4.139302 -V 0.505050 -T 0.100030
n -t 2.900000 -s 2 -x 510.056418 -y 323.734272 -U -1.687014 -V -1.092742 -T 0.104574
n -t 3.000000 -s 0 -x 1305.110595 -y 14.456098 -U -0.794310 -V 6.148908 -T 0.101465
n -t 3.000000 -s 1 -x 699.509876 -y 380.959985 -U 4.359655 -V 0.594481 -T 0.100954
n -t 3.000000 -s 2 -x 509.887716 -y 323.624998 -U -1.847815 -V -1.230439 -T 0.101588
n -t 3.000000 -s 3 -x 2108.970000 -y 1536.520000 -U 0.000000 -V 0.000000 -T 0.000000
n -t 3.100000 -s 0 -x 1305.031164 -y 15.070989 -U -0.903899 -V 6.335848 -T 0.100856
n -t 3.100000 -s 1 -x 699.945842 -y 381.019433 -U 4.539807 -V 0.605433 -T 0.100039
n -t 3.100000 -s 2 -x 509.702935 -y 323.501954 -U -2.003670 -V -1.302846 -T 0.101282
n -t 3.100000 -s 3 -x 2108.970000 -y 1536.520000 -U -0.176777 -V -0.176777 -T 0.113137
n -t 3.200000 -s 0 -x 1304.940774 -y 15.704574 -U -1.002987 -V 6.523344 -T 0.100474
n -t 3.200000 -s 1 -x 700.399823 -y 381.079976 -U 4.739866 -V 0.691209 -T 0.101306
n -t 3.200000 -s 2 -x 509.502568 -y 323.371670 -U -2.168053 -V -1.380017 -T 0.102658
n -t 3.200000 -s 3 -x 2108.952322 -y 1536.502322 -U -0.353553 -V -0.353553 -T 0.091421
n -t 3.300000 -s 0 -x 1304.840475 -y 16.356908 -U -0.899426 -V 6.790695 -T 0.100592
n -t 3.300000 -s 1 -x 700.873809 -y 381.149097 -U 4.942906 -V 0.606696 -T 0.100384
n -t 3.300000 -s 2 -x 509.285763 -y 323.233668 -U -2.331258 -V -1.420612 -T 0.101131
n -t 3.300000 -s 3 -x 2108.920000 -y 1536.470000 -U -0.560802 -V -0.467335 -T 0.106990
n -t 3.400000 -s 0 -x 1304.750533 -y 17.035978 -U -0.998027 -V 6.989102 -T 0.100731
n -t 3.400000 -s 1 -x 701.368100 -y 381.209767 -U 5.193188 -V 0.698858 -T 0.100497
n -t 3.400000 -s 2 -x 509.052637 -y 323.091607 -U -2.456813 -V -1.668822 -T 0.102831
n -t 3.400000 -s 3 -x 2108.863920 -y 1536.423267 -U -0.736938 -V -0.630731 -T 0.100307
n -t 3.500000 -s 0 -x 1304.650730 -y 17.734888 -U -1.004271 -V 7.129617 -T 0.100302
n -t 3.500000 -s 1 -x 701.887418 -y 381.279653 -U 5.365094 -V 0.695601 -T 0.101132
n -t 3.500000 -s 2 -x 508.806955 -y 322.924725 -U -2.706423 -V -1.707418 -T 0.102333
n -t 3.500000 -s 3 -x 2108.790226 -y 1536.360193 -U -0.944793 -V -0.755954 -T 0.106082
n -t 3.600000 -s 0 -x 1304.550303 -y 18.447849 -U -0.994900 -V 7.262167 -T 0.100817
n -t 3.600000 -s 1 -x 702.423928 -y 381.349213 -U 5.603225 -V 0.799667 -T 0.101026
n -t 3.600000 -s 2 -x 508.536313 -y 322.753983 -U -2.835112 -V -1.821823 -T 0.100988
n -t 3.600000 -s 3 -x 2108.695747 -y 1536.284598 -U -1.130474 -V -0.923920 -T 0.102388
n -t 3.700000 -s 0 -x 1304.450813 -y 19.174066 -U -1.097958 -V 7.489953 -T 0.100926
n -t 3.700000 -s 1 -x 702.984250 -y 381.429179 -U 5.756613 -V 0.708097 -T 0.100015
n -t 3.700000 -s 2 -x 508.252802 -y 322.571801 -U -2.995689 -V -1.996459 -T 0.101079
n -t 3.700000 -s 3 -x 2108.582699 -y 1536.192206 -U -1.217629 -V -1.113498 -T 0.100769
n -t 3.800000 -s 0 -x 1304.341017 -y 19.923061 -U -1.103339 -V 7.721570 -T 0.100619
n -t 3.800000 -s 1 -x 703.559912 -y 381.499989 -U 5.905957 -V 0.800797 -T 0.099914
n -t 3.800000 -s 2 -x 507.953233 -y 322.372155 -U -3.196358 -V -1.999049 -T 0.101125
n -t 3.800000 -s 3 -x 2108.460936 -y 1536.080856 -U -1.490943 -V -1.193813 -T 0.101235
n -t 3.900000 -s 0 -x 1304.230683 -y 20.695218 -U -1.096808 -V 7.974930 -T 0.100914
n -t 3.900000 -s 1 -x 704.150000 -y 381.580000 -U 6.139105 -V 0.792143 -T 0.100992
n -t 3.900000 -s 2 -x 507.633597 -y 322.172250 -U -3.307330 -V -2.104274 -T 0.100866
n -t 3.900000 -s 3 -x 2108.311842 -y 1535.961475 -U -1.611189 -V -1.408428 -T 0.100449
n -t 4.000000 -s 0 -x 1304.121002 -y 21.492711 -U -1.199762 -V 8.202723 -T 0.100855
n -t 4.000000 -s 1 -x 704.763910 -y 381.659214 -U 6.335794 -V 0.904275 -T 0.100396
n -t 4.000000 -s 2 -x 507.302864 -y 321.961822 -U -3.460090 -V -2.273187 -T 0.101981
n -t 4.000000 -s 3 -x 2108.150723 -y 1535.820632 -U -1.709660 -V -1.508464 -T 0.099858
n -t 4.100000 -s 0 -x 1304.001026 -y 22.312984 -U -1.203729 -V 8.424437 -T 0.100543
n -t 4.100000 -s 1 -x 705.397490 -y 381.749642 -U 6.581761 -V 0.798326 -T 0.100658
n -t 4.100000 -s 2 -x 506.956855 -y 321.734504 -U -3.682785 -V -2.389391 -T 0.102329
n -t 4.100000 -s 3 -x 2107.980000 -y 1535.670000 -U -1.889331 -V -1.591015 -T 0.100565
n -t 4.200000 -s 0 -x 1303.880653 -y 23.155427 -U -1.201073 -V 8.606598 -T 0.100455
n -t 4.200000 -s 1 -x 706.055666 -y 381.829474 -U 6.759365 -V 0.907408 -T 0.099763
n -t 4.200000 -s 2 -x 506.588577 -y 321.495565 -U -3.820954 -V -2.414686 -T 0.101696
n -t 4.200000 -s 3 -x 2107.791067 -y 1535.510898 -U -2.098392 -V -1.699044 -T 0.100585
n -t 4.300000 -s 0 -x 1303.760546 -y 24.016087 -U -1.198576 -V 8.788647 -T 0.100574
n -t 4.300000 -s 1 -x 706.730000 -y 381.920000 -U 6.919747 -V 0.988535 -T 0.101160
n -t 4.300000 -s 2 -x 506.206481 -y 321.254096 -U -4.008287 -V -2.604234 -T 0.101410
n -t 4.300000 -s 3 -x 2107.581228 -y 1535.340994 -U -2.225389 -V -1.921261 -T 0.099411
n -t 4.400000 -s 0 -x 1303.640688 -y 24.894952 -U -1.294829 -V 8.966996 -T 0.100931
n -t 4.400000 -s 1 -x 707.421975 -y 382.018854 -U 7.112921 -V 0.902918 -T 0.100947
n -t 4.400000 -s 2 -x 505.805653 -y 320.993673 -U -4.188895 -V -2.693243 -T 0.101615
n -t 4.400000 -s 3 -x 2107.360000 -y 1535.150000 -U -2.378142 -V -2.080875 -T 0.100919
n -t 4.500000 -s 0 -x 1303.511206 -y 25.791652 -U -1.301455 -V 9.208486 -T 0.100814
n -t 4.500000 -s 1 -x 708.133267 -y 382.109145 -U 7.321714 -V 1.002302 -T 0.100623
n -t 4.500000 -s 2 -x 505.386763 -y 320.724348 -U -4.290800 -V -2.793463 -T 0.101791
n -t 4.500000 -s 3 -x 2107.122186 -y 1534.941913 -U -2.587573 -V -2.190107 -T 0.101325
n -t 4.600000 -s 0 -x 1303.381060 -y 26.712500 -U -1.297554 -V 9.380685 -T 0.101005
n -t 4.600000 -s 1 -x 708.865438 -y 382.209376 -U 7.533311 -V 1.004604 -T 0.100163
n -t 4.600000 -s 2 -x 504.957683 -y 320.445002 -U -4.462460 -V -2.840871 -T 0.100322
n -t 4.600000 -s 3 -x 2106.863429 -y 1534.722902 -U -2.765950 -V -2.272866 -T 0.102471
n -t 4.700000 -s 0 -x 1303.251305 -y 27.650569 -U -1.400251 -V 9.507439 -T 0.100914
n -t 4.700000 -s 1 -x 709.618769 -y 382.309836 -U 7.786263 -V 0.998302 -T 0.100334
n -t 4.700000 -s 2 -x 504.511437 -y 320.160915 -U -4.573455 -V -2.982467 -T 0.100895
n -t 4.700000 -s 3 -x 2106.586833 -y 1534.495615 -U -2.863591 -V -2.452090 -T 0.100166
n -t 4.800000 -s 0 -x 1303.111279 -y 28.601313 -U -1.407115 -V 9.647929 -T 0.100404
n -t 4.800000 -s 1 -x 710.397396 -y 382.409666 -U 8.014624 -V 1.101769 -T 0.100142
n -t 4.800000 -s 2 -x 504.054092 -y 319.862668 -U -4.501989 -V -3.397307 -T 0.100865
n -t 4.800000 -s 3 -x 2106.300474 -y 1534.250406 -U -2.954768 -V -2.560751 -T 0.101691
n -t 4.900000 -s 0 -x 1302.970568 -y 29.566105 -U -1.391976 -V 9.842053 -T 0.100984
n -t 4.900000 -s 1 -x 711.198858 -y 382.519843 -U 8.186663 -V 1.098249 -T 0.100302
n -t 4.900000 -s 2 -x 503.603893 -y 319.522937 -U -4.667708 -V -3.476334 -T 0.101526
n -t 4.900000 -s 3 -x 2106.004998 -y 1533.994331 -U -3.125379 -V -2.622671 -T 0.100787
n -t 5.000000 -s 0 -x 1302.831370 -y 30.550311 -U -1.410013 -V 9.970795 -T 0.100262
n -t 5.000000 -s 1 -x 712.017524 -y 382.629668 -U 8.408202 -V 1.101153 -T 0.100197
n -t 5.000000 -s 2 -x 503.137122 -y 319.175304 -U -4.800176 -V -3.599765 -T 0.101480
n -t 5.000000 -s 3 -x 2105.692460 -y 1533.732064 -U -3.191358 -V -2.791565 -T 0.101042
n -t 5.000000 -s 4 -x 231.700000 -y 728.240000 -U 0.000000 -V 0.000000 -T 0.000000
n -t 5.100000 -s 0 -x 1302.690369 -y 31.547390 -U -1.388461 -V 10.115151 -T 0.101097
n -t 5.100000 -s 1 -x 712.858344 -y 382.739783 -U 8.631273 -V 1.091385 -T 0.100988
n -t 5.100000 -s 2 -x 502.657104 -y 318.815328 -U -4.931845 -V -3.822893 -T 0.100795
n -t 5.100000 -s 3 -x 2105.373324 -y 1533.452907 -U -3.387950 -V -2.791755 -T 0.101337
n -t 5.100000 -s 4 -x 231.700000 -y 728.240000 -U 0.116276 -V -0.232551 -T 0.086003
n -t 5.200000 -s 0 -x 1302.551523 -y 32.558905 -U -1.506260 -V 10.249916 -T 0.100595
n -t 5.200000 -s 1 -x 713.721472 -y 382.848922 -U 8.828409 -V 1.203034 -T 0.100644
n -t 5.200000 -s 2 -x 502.163920 -y 318.433038 -U -5.115451 -V -3.812685 -T 0.100464
n -t 5.200000 -s 3 -x 2105.034529 -y 1533.173732 -U -3.508499 -V -3.005800 -T 0.101049
n -t 5.200000 -s 4 -x 231.710000 -y 728.220000 -U 0.267538 -V -0.445896 -T 0.112134
n -t 5.300000 -s 0 -x 1302.400897 -y 33.583897 -U -1.404231 -V 10.425859 -T 0.100337
n -t 5.300000 -s 1 -x 714.604313 -y 382.969225 -U 9.010240 -V 1.201531 -T 0.100518
n -t 5.300000 -s 2 -x 501.652375 -y 318.051770 -U -5.232053 -V -3.923929 -T 0.099841
n -t 5.300000 -s 3 -x 2104.683679 -y 1532.873152 -U -3.717284 -V -3.115172 -T 0.100525
n -t 5.300000 -s 4 -x 231.736754 -y 728.175410 -U 0.314657 -V -0.713716 -T 0.105659
n -t 5.400000 -s 0 -x 1302.260474 -y 34.626483 -U -1.496178 -V 10.574680 -T 0.100572
n -t 5.400000 -s 1 -x 715.505337 -y 383.089378 -U 9.172286 -V 1.196520 -T 0.100811
n -t 5.400000 -s 2 -x 501.130000 -y 317.660000 -U -5.376013 -V -4.081787 -T 0.100446
n -t 5.400000 -s 3 -x 2104.311951 -y 1532.561635 -U -3.798108 -V -3.297768 -T 0.100563
n -t 5.400000 -s 4 -x 231.768219 -y 728.104039 -U 0.496813 -V -0.902262 -T 0.104225
n -t 5.500000 -s 0 -x 1302.110856 -y 35.683951 -U -1.594059 -V 10.762592 -T 0.100910
n -t 5.500000 -s 1 -x 716.422565 -y 383.209030 -U 9.352452 -V 1.206873 -T 0.100234
n -t 5.500000 -s 2 -x 500.592399 -y 317.251821 -U -5.591894 -V -4.194141 -T 0.100574
n -t 5.500000 -s 3 -x 2103.932140 -y 1532.231858 -U -3.954275 -V -3.361518 -T 0.101697
n -t 5.500000 -s 4 -x 231.817901 -y 728.013813 -U 0.613081 -V -1.123624 -T 0.101291
n -t 5.600000 -s 0 -x 1301.951450 -y 36.760210 -U -1.502228 -V 11.007970 -T 0.100817
n -t 5.600000 -s 1 -x 717.357811 -y 383.329717 -U 9.542919 -V 1.292132 -T 0.100828
n -t 5.600000 -s 2 -x 500.033209 -y 316.832407 -U -5.783713 -V -4.288201 -T 0.100836
n -t 5.600000 -s 3 -x 2103.536712 -y 1531.895706 -U -4.137588 -V -3.531850 -T 0.100714
n -t 5.600000 -s 4 -x 231.879209 -y 727.901450 -U 0.697006 -V -1.294250 -T 0.101565
n -t 5.700000 -s 0 -x 1301.801227 -y 37.861007 -U -1.600331 -V 11.206308 -T 0.100746
n -t 5.700000 -s 1 -x 718.312102 -y 383.458931 -U 9.693320 -V 1.299213 -T 0.100884
n -t 5.700000 -s 2 -x 499.454838 -y 316.403587 -U -5.916203 -V -4.511334 -T 0.100544
n -t 5.700000 -s 3 -x 2103.122953 -y 1531.542521 -U -4.316608 -V -3.614387 -T 0.100299
n -t 5.700000 -s 4 -x 231.948909 -y 727.772025 -U 0.828039 -V -1.450259 -T 0.097931
n -t 5.800000 -s 0 -x 1301.641194 -y 38.981638 -U -1.605519 -V 11.437867 -T 0.100400
n -t 5.800000 -s 1 -x 719.281434 -y 383.588852 -U 9.895024 -V 1.299577 -T 0.100916
n -t 5.800000 -s 2 -x 498.863218 -y 315.952454 -U -6.115817 -V -4.612199 -T 0.100267
n -t 5.800000 -s 3 -x 2102.691293 -y 1531.181082 -U -4.492541 -V -3.793610 -T 0.100454
n -t 5.800000 -s 4 -x 232.030000 -y 727.630000 -U 0.870271 -V -1.643846 -T 0.103416
n -t 5.900000 -s 0 -x 1301.480642 -y 40.125425 -U -1.690743 -V 11.637826 -T 0.100927
n -t 5.900000 -s 1 -x 720.270937 -y 383.718810 -U 10.133205 -V 1.403947 -T 0.100567
n -t 5.900000 -s 2 -x 498.251636 -y 315.491234 -U -6.215887 -V -4.711979 -T 0.100008
n -t 5.900000 -s 3 -x 2102.242039 -y 1530.801721 -U -4.588254 -V -3.989277 -T 0.100700
n -t 5.900000 -s 4 -x 232.117027 -y 727.465615 -U 1.009038 -V -1.818858 -T 0.102051
n -t 6.000000 -s 0 -x 1301.311568 -y 41.289207 -U -1.602633 -V 11.811772 -T 0.100814
n -t 6.000000 -s 1 -x 721.284257 -y 383.859204 -U 10.318054 -V 1.302984 -T 0.100382
n -t 6.000000 -s 2 -x 497.630047 -y 315.020036 -U -6.359998 -V -4.770002 -T 0.100636
n -t 6.000000 -s 3 -x 2101.783213 -y 1530.402794 -U -4.823860 -V -4.021042 -T 0.100171
n -t 6.000000 -s 4 -x 232.217931 -y 727.283730 -U 1.082011 -V -2.063529 -T 0.103575
n -t 6.100000 -s 0 -x 1301.151305 -y 42.470384 -U -1.707696 -V 11.958686 -T 0.100313
n -t 6.100000 -s 1 -x 722.316063 -y 383.989503 -U 10.457490 -V 1.394057 -T 0.100783
n -t 6.100000 -s 2 -x 496.994047 -y 314.543036 -U -6.492069 -V -4.893867 -T 0.100746
n -t 6.100000 -s 3 -x 2101.300827 -y 1530.000690 -U -4.961793 -V -4.167854 -T 0.100937
n -t 6.100000 -s 4 -x 232.326132 -y 727.077377 -U 1.200756 -V -2.204152 -T 0.103158
n -t 6.200000 -s 0 -x 1300.980535 -y 43.666253 -U -1.795146 -V 12.168297 -T 0.100568
n -t 6.200000 -s 1 -x 723.361812 -y 384.128908 -U 10.637607 -V 1.405067 -T 0.100416
n -t 6.200000 -s 2 -x 496.344841 -y 314.053649 -U -6.615583 -V -5.111131 -T 0.100496
n -t 6.200000 -s 3 -x 2100.804648 -y 1529.583904 -U -5.042391 -V -4.335527 -T 0.100081
n -t 6.200000 -s 4 -x 232.446208 -y 726.856962 -U 1.300415 -V -2.400379 -T 0.102884
n -t 6.300000 -s 0 -x 1300.801020 -y 44.883083 -U -1.698531 -V 12.384062 -T 0.100687
n -t 6.300000 -s 1 -x 724.425572 -y 384.269415 -U 10.766692 -V 1.495075 -T 0.100721
n -t 6.300000 -s 2 -x 495.683282 -y 313.542536 -U -6.875185 -V -5.082748 -T 0.100838
n -t 6.300000 -s 3 -x 2100.300409 -y 1529.150351 -U -5.213901 -V -4.411818 -T 0.099812
n -t 6.300000 -s 4 -x 232.576249 -y 726.616924 -U 1.401354 -V -2.504617 -T 0.102580
n -t 6.400000 -s 0 -x 1300.631167 -y 46.121489 -U -1.799821 -V 12.602125 -T 0.100659
n -t 6.400000 -s 1 -x 725.502242 -y 384.418923 -U 10.971385 -V 1.397249 -T 0.100968
n -t 6.400000 -s 2 -x 494.995764 -y 313.034261 -U -6.940308 -V -5.229553 -T 0.100250
n -t 6.400000 -s 3 -x 2099.780000 -y 1528.710000 -U -5.351540 -V -4.558719 -T 0.100906
n -t 6.400000 -s 4 -x 232.716384 -y 726.366462 -U 1.508333 -V -2.616359 -T 0.101845
n -t 6.500000 -s 0 -x 1300.451185 -y 47.381701 -U -1.804920 -V 12.833700 -T 0.100384
n -t 6.500000 -s 1 -x 726.599380 -y 384.558648 -U 11.198324 -V 1.512461 -T 0.100070
n -t 6.500000 -s 2 -x 494.301733 -y 312.511306 -U -7.083979 -V -5.387693 -T 0.100471
n -t 6.500000 -s 3 -x 2099.244846 -y 1528.254128 -U -5.583656 -V -4.686885 -T 0.101161
n -t 6.500000 -s 4 -x 232.867218 -y 726.104826 -U 1.495332 -V -2.885564 -T 0.102173
n -t 6.600000 -s 0 -x 1300.270693 -y 48.665071 -U -1.897339 -V 13.083138 -T 0.100506
n -t 6.600000 -s 1 -x 727.719212 -y 384.709894 -U 11.371977 -V 1.496340 -T 0.100316
n -t 6.600000 -s 2 -x 493.593335 -y 311.972536 -U -7.239831 -V -5.430225 -T 0.099910
n -t 6.600000 -s 3 -x 2098.686480 -y 1527.785440 -U -5.680432 -V -4.881885 -T 0.101485
n -t 6.600000 -s 4 -x 233.016751 -y 725.816270 -U 1.688791 -V -2.985445 -T 0.102588
n -t 6.700000 -s 0 -x 1300.080959 -y 49.973385 -U -1.892622 -V 13.346474 -T 0.100897
n -t 6.700000 -s 1 -x 728.856410 -y 384.859528 -U 11.583546 -V 1.497953 -T 0.100452
n -t 6.700000 -s 2 -x 492.870000 -y 311.430000 -U -7.344113 -V -5.557707 -T 0.100761
n -t 6.700000 -s 3 -x 2098.118437 -y 1527.297251 -U -5.843122 -V -4.937654 -T 0.100706
n -t 6.700000 -s 4 -x 233.185630 -y 725.517725 -U 1.723850 -V -3.239945 -T 0.101151
n -t 6.800000 -s 0 -x 1299.891697 -y 51.308033 -U -1.912071 -V 13.485117 -T 0.100256
n -t 6.800000 -s 1 -x 730.014765 -y 385.009323 -U 11.821863 -V 1.602637 -T 0.100258
n -t 6.800000 -s 2 -x 492.135589 -y 310.874229 -U -7.491973 -V -5.693720 -T 0.100853
n -t 6.800000 -s 3 -x 2097.534125 -y 1526.803486 -U -5.973704 -V -5.077446 -T 0.101131
n -t 6.800000 -s 4 -x 233.358015 -y 725.193731 -U 1.896873 -V -3.396170 -T 0.101211
n -t 6.900000 -s 0 -x 1299.700490 -y 52.656544 -U -1.897203 -V 13.679061 -T 0.100406
n -t 6.900000 -s 1 -x 731.196951 -y 385.169587 -U 12.074879 -V 1.596779 -T 0.100461
n -t 6.900000 -s 2 -x 491.386391 -y 310.304857 -U -7.699778 -V -5.800260 -T 0.100833
n -t 6.900000 -s 3 -x 2096.936755 -y 1526.295741 -U -6.149085 -V -5.241675 -T 0.100300
n -t 6.900000 -s 4 -x 233.547702 -y 724.854114 -U 1.919366 -V -3.634300 -T 0.100188
n -t 7.000000 -s 0 -x 1299.510770 -y 54.024450 -U -2.000695 -V 13.906823 -T 0.100350
n -t 7.000000 -s 1 -x 732.404439 -y 385.329265 -U 12.303092 -V 1.700097 -T 0.100427
n -t 7.000000 -s 2 -x 490.616414 -y 309.724831 -U -7.923822 -V -5.918204 -T 0.100509
n -t 7.000000 -s 3 -x 2096.321846 -y 1525.771574 -U -6.233539 -V -5.342948 -T 0.101362
n -t 7.000000 -s 4 -x 233.739639 -y 724.490684 -U 2.065214 -V -3.737351 -T 0.101859
n -t 7.000000 -s 5 -x 1306.410000 -y 5.270000 -U 0.000000 -V 0.000000 -T 0.000000
n -t 7.100000 -s 0 -x 1299.310700 -y 55.415133 -U -1.995723 -V 14.069157 -T 0.100565
n -t 7.100000 -s 1 -x 733.634748 -y 385.499274 -U 12.478127 -V 1.597732 -T 0.100596
n -t 7.100000 -s 2 -x 489.824031 -y 309.133011 -U -8.000049 -V -6.099411 -T 0.100503
n -t 7.100000 -s 3 -x 2095.698492 -y 1525.237279 -U -6.457705 -V -5.449820 -T 0.100421
n -t 7.100000 -s 4 -x 233.946160 -y 724.116949 -U 2.102527 -V -4.001223 -T 0.101706
n -t 7.100000 -s 5 -x 1306.410000 -y 5.270000 -U 0.000000 -V 0.260000 -T 0.115385
n -t 7.200000 -s 0 -x 1299.111128 -y 56.822048 -U -1.997497 -V 14.280981 -T 0.100690
n -t 7.200000 -s 1 -x 734.882561 -y 385.659047 -U 12.605850 -V 1.700280 -T 0.100544
n -t 7.200000 -s 2 -x 489.024026 -y 308.523070 -U -8.167910 -V -6.175989 -T 0.100886
n -t 7.200000 -s 3 -x 2095.052722 -y 1524.692297 -U -6.572889 -V -5.576874 -T 0.100827
n -t 7.200000 -s 4 -x 234.156413 -y 723.716826 -U 2.317221 -V -4.134984 -T 0.100805
n -t 7.200000 -s 5 -x 1306.410000 -y 5.296000 -U -0.094686 -V 0.511307 -T 0.105612
n -t 7.300000 -s 0 -x 1298.911378 -y 58.250147 -U -2.008593 -V 14.461174 -T 0.100258
n -t 7.300000 -s 1 -x 736.143146 -y 385.829076 -U 12.736392 -V 1.704941 -T 0.100252
n -t 7.300000 -s 2 -x 488.207235 -y 307.905471 -U -8.371772 -V -6.254274 -T 0.100007
n -t 7.300000 -s 3 -x 2094.395433 -y 1524.134610 -U -6.637744 -V -5.731775 -T 0.100250
n -t 7.300000 -s 4 -x 234.388135 -y 723.303328 -U 2.389851 -V -4.380492 -T 0.101205
n -t 7.300000 -s 5 -x 1306.400531 -y 5.347131 -U -0.110139 -V 0.762082 -T 0.095619
n -t 7.400000 -s 0 -x 1298.710519 -y 59.696264 -U -2.086971 -V 14.510691 -T 0.100873
n -t 7.400000 -s 1 -x 737.416785 -y 385.999570 -U 12.848900 -V 1.693332 -T 0.100648
n -t 7.400000 -s 2 -x 487.370058 -y 307.280044 -U -8.484009 -V -6.387956 -T 0.100195
n -t 7.400000 -s 3 -x 2093.731658 -y 1523.561432 -U -6.858571 -V -5.765553 -T 0.100846
n -t 7.400000 -s 4 -x 234.627120 -y 722.865279 -U 2.483153 -V -4.568802 -T 0.101838
n -t 7.400000 -s 5 -x 1306.390000 -y 5.420000 -U -0.100499 -V 1.004988 -T 0.099504
n -t 7.500000 -s 0 -x 1298.501822 -y 61.147333 -U -2.005198 -V 14.532312 -T 0.100649
n -t 7.500000 -s 1 -x 738.701675 -y 386.168903 -U 12.847200 -V 1.706184 -T 0.100281
n -t 7.500000 -s 2 -x 486.521657 -y 306.641248 -U -8.620244 -V -6.539403 -T 0.101117
n -t 7.500000 -s 3 -x 2093.045801 -y 1522.984877 -U -7.011701 -V -5.909734 -T 0.100660
n -t 7.500000 -s 4 -x 234.875435 -y 722.408398 -U 2.513178 -V -4.722969 -T 0.101292
n -t 7.500000 -s 5 -x 1306.380000 -y 5.520000 -U -0.191592 -V 1.245348 -T 0.104388
n -t 7.600000 -s 0 -x 1298.301302 -y 62.600564 -U -2.107785 -V 14.558205 -T 0.100248
n -t 7.600000 -s 1 -x 739.986395 -y 386.339521 -U 12.797624 -V 1.699684 -T 0.100300
n -t 7.600000 -s 2 -x 485.659633 -y 305.987308 -U -8.823605 -V -6.618526 -T 0.100824
n -t 7.600000 -s 3 -x 2092.344631 -y 1522.393903 -U -7.122706 -V -6.118755 -T 0.100331
n -t 7.600000 -s 4 -x 235.126753 -y 721.936102 -U 2.692063 -V -4.887658 -T 0.101501
n -t 7.600000 -s 5 -x 1306.360841 -y 5.644535 -U -0.205642 -V 1.435344 -T 0.101345
n -t 7.700000 -s 0 -x 1298.090523 -y 64.056385 -U -2.088607 -V 14.520558 -T 0.100796
n -t 7.700000 -s 1 -x 741.266157 -y 386.509490 -U 12.797624 -V 1.699684 -T 0.100319
n -t 7.700000 -s 2 -x 484.777272 -y 305.325455 -U -8.947810 -V -6.835517 -T 0.100278
n -t 7.700000 -s 3 -x 2091.632361 -y 1521.782028 -U -7.309355 -V -6.208175 -T 0.100195
n -t 7.700000 -s 4 -x 235.395960 -y 721.447336 -U 2.813846 -V -5.025920 -T 0.100944
n -t 7.700000 -s 5 -x 1306.340277 -y 5.788069 -U -0.203766 -V 1.627292 -T 0.099509
n -t 7.800000 -s 0 -x 1297.881663 -y 65.508441 -U -2.011810 -V 14.480919 -T 0.100239
n -t 7.800000 -s 1 -x 742.545920 -y 386.679458 -U 12.797624 -V 1.699684 -T 0.100337
n -t 7.800000 -s 2 -x 483.882491 -y 304.641903 -U -9.199834 -V -6.900222 -T 0.100273
n -t 7.800000 -s 3 -x 2090.901425 -y 1521.161210 -U -7.469971 -V -6.374319 -T 0.100593
n -t 7.800000 -s 4 -x 235.677344 -y 720.944744 -U 2.799214 -V -5.295706 -T 0.100977
n -t 7.800000 -s 5 -x 1306.320000 -y 5.950000 -U -0.300850 -V 1.805101 -T 0.099717
n -t 7.900000 -s 0 -x 1297.680482 -y 66.956533 -U -2.091256 -V 14.540383 -T 0.100648
n -t 7.900000 -s 1 -x 743.825682 -y 386.849427 -U 12.898474 -V 1.699843 -T 0.100347
n -t 7.900000 -s 2 -x 482.962508 -y 303.951881 -U -9.352132 -V -7.063713 -T 0.100780
n -t 7.900000 -s 3 -x 2090.154428 -y 1520.523778 -U -7.679395 -V -6.483008 -T 0.100845
n -t 7.900000 -s 4 -x 235.957266 -y 720.415173 -U 2.977799 -V -5.460871 -T 0.101664
n -t 7.900000 -s 5 -x 1306.290000 -y 6.130000 -U -0.292742 -V 2.049195 -T 0.102479
n -t 8.000000 -s 0 -x 1297.471356 -y 68.410571 -U -1.998409 -V 14.583716 -T 0.100758
n -t 8.000000 -s 1 -x 745.115529 -y 387.019411 -U 12.838994 -V 1.691961 -T 0.100823
n -t 8.000000 -s 2 -x 482.027295 -y 303.245510 -U -9.531750 -V -7.124306 -T 0.100432
n -t 8.000000 -s 3 -x 2089.386489 -y 1519.875478 -U -7.798566 -V -6.697818 -T 0.100850
n -t 8.000000 -s 4 -x 236.255045 -y 719.869086 -U 3.089371 -V -5.582131 -T 0.101948
n -t 8.000000 -s 5 -x 1306.260726 -y 6.334920 -U -0.302973 -V 2.219416 -T 0.101414
n -t 8.100000 -s 0 -x 1297.271515 -y 69.868942 -U -2.107374 -V 14.457215 -T 0.100369
n -t 8.100000 -s 1 -x 746.399429 -y 387.188607 -U 12.795899 -V 1.712618 -T 0.100077
n -t 8.100000 -s 2 -x 481.074120 -y 302.533079 -U -9.660226 -V -7.369025 -T 0.100838
n -t 8.100000 -s 3 -x 2088.606632 -y 1519.205696 -U -8.015314 -V -6.813600 -T 0.100636
n -t 8.100000 -s 4 -x 236.563982 -y 719.310873 -U 3.112669 -V -5.819905 -T 0.101526
n -t 8.100000 -s 5 -x 1306.230428 -y 6.556861 -U -0.306724 -V 2.450882 -T 0.099205
n -t 8.200000 -s 0 -x 1297.060778 -y 71.314664 -U -1.991451 -V 14.534202 -T 0.100820
n -t 8.200000 -s 1 -x 747.679019 -y 387.359869 -U 12.797622 -V 1.699694 -T 0.100095
n -t 8.200000 -s 2 -x 480.108097 -y 301.796177 -U -9.847531 -V -7.436514 -T 0.100340
n -t 8.200000 -s 3 -x 2087.805101 -y 1518.524336 -U -8.217529 -V -6.915187 -T 0.100407
n -t 8.200000 -s 4 -x 236.875249 -y 718.728883 -U 3.295306 -V -5.993877 -T 0.101584
n -t 8.200000 -s 5 -x 1306.200000 -y 6.800000 -U -0.396869 -V 2.579650 -T 0.100789
n -t 8.300000 -s 0 -x 1296.861633 -y 72.768084 -U -2.106076 -V 14.548348 -T 0.100487
n -t 8.300000 -s 1 -x 748.958781 -y 387.529838 -U 12.829078 -V 1.690666 -T 0.100648
n -t 8.300000 -s 2 -x 479.123344 -y 301.052525 -U -10.075599 -V -7.482299 -T 0.100574
n -t 8.300000 -s 3 -x 2086.983348 -y 1517.832817 -U -8.328761 -V -7.124138 -T 0.100057
n -t 8.300000 -s 4 -x 237.204780 -y 718.129495 -U 3.326613 -V -6.147662 -T 0.100769
n -t 8.300000 -s 5 -x 1306.160313 -y 7.057965 -U -0.391091 -V 2.833134 -T 0.103078
n -t 8.400000 -s 0 -x 1296.651025 -y 74.222919 -U -1.996744 -V 14.472910 -T 0.100676
n -t 8.400000 -s 1 -x 750.241689 -y 387.698905 -U 12.857113 -V 1.707500 -T 0.100202
n -t 8.400000 -s 2 -x 478.115784 -y 300.304295 -U -10.140000 -V -7.729354 -T 0.100176